<?xml version="1.0" encoding="UTF-8"?>

<!-- generated on 08/29/20 22:13:18 by Eclipse SUMO GUI Version 1.3.1
<configuration xmlns:xsi="http://www.w3.org/2001/XMLSchema-instance" xsi:noNamespaceSchemaLocation="http://sumo.dlr.de/xsd/sumoConfiguration.xsd">

    <input>
        <net-file value="../cfg/cross.net.xml"/>
        <route-files value="../cfg/cross_s.rou.xml"/>
        <additional-files value="../cfg/detector.xml"/>
    </input>

    <output>
        <tripinfo-output value="tripinfo.xml"/>
    </output>

    <time>
        <begin value="0"/>
    </time>

    <report>
        <verbose value="true"/>
        <no-step-log value="true"/>
    </report>

    <traci_server>
        <remote-port value="57369"/>
    </traci_server>

</configuration>
-->

<tripinfos xmlns:xsi="http://www.w3.org/2001/XMLSchema-instance" xsi:noNamespaceSchemaLocation="http://sumo.dlr.de/xsd/tripinfo_file.xsd">
    <tripinfo id="W_S_HV.0" depart="1.00" departLane="1i_0" departPos="5.10" departSpeed="0.00" departDelay="0.00" arrival="97.00" arrivalLane="2o_0" arrivalPos="786.40" arrivalSpeed="19.76" duration="96.00" routeLength="1594.90" waitingTime="0.00" waitingCount="0" stopTime="0.00" timeLoss="15.66" rerouteNo="0" devices="tripinfo_W_S_HV.0" vType="HV" speedFactor="1.06" vaporized=""/>
    <tripinfo id="W_S_HV.1" depart="6.00" departLane="1i_0" departPos="5.10" departSpeed="0.00" departDelay="1.00" arrival="110.00" arrivalLane="2o_0" arrivalPos="786.40" arrivalSpeed="18.21" duration="104.00" routeLength="1594.90" waitingTime="0.00" waitingCount="0" stopTime="0.00" timeLoss="16.42" rerouteNo="0" devices="tripinfo_W_S_HV.1" vType="HV" speedFactor="0.94" vaporized=""/>
    <tripinfo id="W_S_HV.2" depart="11.00" departLane="1i_0" departPos="5.10" departSpeed="0.00" departDelay="3.00" arrival="110.00" arrivalLane="2o_1" arrivalPos="786.40" arrivalSpeed="19.51" duration="99.00" routeLength="1594.90" waitingTime="0.00" waitingCount="0" stopTime="0.00" timeLoss="17.13" rerouteNo="0" devices="tripinfo_W_S_HV.2" vType="HV" speedFactor="1.01" vaporized=""/>
    <tripinfo id="W_S_HV.3" depart="17.00" departLane="1i_0" departPos="5.10" departSpeed="0.00" departDelay="7.00" arrival="114.00" arrivalLane="2o_0" arrivalPos="786.40" arrivalSpeed="19.91" duration="97.00" routeLength="1594.90" waitingTime="0.00" waitingCount="0" stopTime="0.00" timeLoss="16.34" rerouteNo="0" devices="tripinfo_W_S_HV.3" vType="HV" speedFactor="1.08" vaporized=""/>
    <tripinfo id="W_S_HV.4" depart="22.00" departLane="1i_0" departPos="5.10" departSpeed="0.00" departDelay="7.00" arrival="119.00" arrivalLane="2o_0" arrivalPos="786.40" arrivalSpeed="19.79" duration="97.00" routeLength="1594.90" waitingTime="0.00" waitingCount="0" stopTime="0.00" timeLoss="17.25" rerouteNo="0" devices="tripinfo_W_S_HV.4" vType="HV" speedFactor="1.03" vaporized=""/>
    <tripinfo id="W_S_HV.6" depart="46.00" departLane="1i_0" departPos="5.10" departSpeed="0.00" departDelay="0.00" arrival="229.00" arrivalLane="2o_0" arrivalPos="786.40" arrivalSpeed="19.64" duration="183.00" routeLength="1594.90" waitingTime="66.00" waitingCount="1" stopTime="0.00" timeLoss="102.28" rerouteNo="0" devices="tripinfo_W_S_HV.6" vType="HV" speedFactor="1.05" vaporized=""/>
    <tripinfo id="W_S_HV.5" depart="38.00" departLane="1i_0" departPos="5.10" departSpeed="0.00" departDelay="0.00" arrival="234.00" arrivalLane="2o_0" arrivalPos="786.40" arrivalSpeed="16.14" duration="196.00" routeLength="1594.90" waitingTime="67.00" waitingCount="1" stopTime="0.00" timeLoss="97.20" rerouteNo="0" devices="tripinfo_W_S_HV.5" vType="HV" speedFactor="0.83" vaporized=""/>
    <tripinfo id="W_S_CV.0" depart="76.00" departLane="1i_0" departPos="5.10" departSpeed="0.00" departDelay="0.00" arrival="235.00" arrivalLane="2o_1" arrivalPos="786.40" arrivalSpeed="17.17" duration="159.00" routeLength="1594.90" waitingTime="35.00" waitingCount="1" stopTime="0.00" timeLoss="65.65" rerouteNo="0" devices="tripinfo_W_S_CV.0" vType="CV" speedFactor="0.89" vaporized=""/>
    <tripinfo id="W_S_HV.7" depart="81.00" departLane="1i_0" departPos="5.10" departSpeed="0.00" departDelay="3.00" arrival="235.00" arrivalLane="2o_2" arrivalPos="786.40" arrivalSpeed="17.98" duration="154.00" routeLength="1594.90" waitingTime="31.00" waitingCount="1" stopTime="0.00" timeLoss="65.62" rerouteNo="0" devices="tripinfo_W_S_HV.7" vType="HV" speedFactor="0.94" vaporized=""/>
    <tripinfo id="W_S_HV.8" depart="120.00" departLane="1i_0" departPos="5.10" departSpeed="0.00" departDelay="0.00" arrival="236.00" arrivalLane="2o_2" arrivalPos="786.40" arrivalSpeed="19.65" duration="116.00" routeLength="1594.90" waitingTime="0.00" waitingCount="0" stopTime="0.00" timeLoss="36.02" rerouteNo="0" devices="tripinfo_W_S_HV.8" vType="HV" speedFactor="1.09" vaporized=""/>
    <tripinfo id="W_S_HV.9" depart="125.00" departLane="1i_0" departPos="5.10" departSpeed="0.00" departDelay="3.00" arrival="238.00" arrivalLane="2o_2" arrivalPos="786.40" arrivalSpeed="19.68" duration="113.00" routeLength="1594.90" waitingTime="0.00" waitingCount="0" stopTime="0.00" timeLoss="32.33" rerouteNo="0" devices="tripinfo_W_S_HV.9" vType="HV" speedFactor="1.03" vaporized=""/>
    <tripinfo id="W_S_HV.10" depart="130.00" departLane="1i_0" departPos="5.10" departSpeed="0.00" departDelay="5.00" arrival="239.00" arrivalLane="2o_1" arrivalPos="786.40" arrivalSpeed="19.68" duration="109.00" routeLength="1594.90" waitingTime="0.00" waitingCount="0" stopTime="0.00" timeLoss="28.94" rerouteNo="0" devices="tripinfo_W_S_HV.10" vType="HV" speedFactor="1.05" vaporized=""/>
    <tripinfo id="W_S_CV.1" depart="104.00" departLane="1i_0" departPos="5.10" departSpeed="0.00" departDelay="0.00" arrival="240.00" arrivalLane="2o_0" arrivalPos="786.40" arrivalSpeed="16.28" duration="136.00" routeLength="1594.90" waitingTime="8.00" waitingCount="1" stopTime="0.00" timeLoss="39.98" rerouteNo="0" devices="tripinfo_W_S_CV.1" vType="CV" speedFactor="0.86" vaporized=""/>
    <tripinfo id="W_S_HV.11" depart="137.00" departLane="1i_0" departPos="5.10" departSpeed="0.00" departDelay="0.00" arrival="241.00" arrivalLane="2o_1" arrivalPos="786.40" arrivalSpeed="19.84" duration="104.00" routeLength="1594.90" waitingTime="0.00" waitingCount="0" stopTime="0.00" timeLoss="23.48" rerouteNo="0" devices="tripinfo_W_S_HV.11" vType="HV" speedFactor="1.12" vaporized=""/>
    <tripinfo id="W_S_HV.12" depart="142.00" departLane="1i_0" departPos="5.10" departSpeed="0.00" departDelay="2.00" arrival="243.00" arrivalLane="2o_0" arrivalPos="786.40" arrivalSpeed="19.15" duration="101.00" routeLength="1594.90" waitingTime="0.00" waitingCount="0" stopTime="0.00" timeLoss="17.98" rerouteNo="0" devices="tripinfo_W_S_HV.12" vType="HV" speedFactor="0.99" vaporized=""/>
    <tripinfo id="W_S_CV.2" depart="155.00" departLane="1i_0" departPos="5.10" departSpeed="0.00" departDelay="0.00" arrival="351.00" arrivalLane="2o_0" arrivalPos="786.40" arrivalSpeed="17.82" duration="196.00" routeLength="1594.90" waitingTime="74.00" waitingCount="1" stopTime="0.00" timeLoss="106.83" rerouteNo="0" devices="tripinfo_W_S_CV.2" vType="CV" speedFactor="0.93" vaporized=""/>
    <tripinfo id="W_S_HV.13" depart="160.00" departLane="1i_0" departPos="5.10" departSpeed="0.00" departDelay="2.00" arrival="355.00" arrivalLane="2o_0" arrivalPos="786.40" arrivalSpeed="16.84" duration="195.00" routeLength="1594.90" waitingTime="69.00" waitingCount="1" stopTime="0.00" timeLoss="101.44" rerouteNo="0" devices="tripinfo_W_S_HV.13" vType="HV" speedFactor="0.88" vaporized=""/>
    <tripinfo id="W_S_HV.14" depart="165.00" departLane="1i_0" departPos="5.10" departSpeed="0.00" departDelay="6.00" arrival="355.00" arrivalLane="2o_1" arrivalPos="786.40" arrivalSpeed="18.16" duration="190.00" routeLength="1594.90" waitingTime="67.00" waitingCount="1" stopTime="0.00" timeLoss="101.96" rerouteNo="0" devices="tripinfo_W_S_HV.14" vType="HV" speedFactor="0.94" vaporized=""/>
    <tripinfo id="W_S_CV.3" depart="180.00" departLane="1i_0" departPos="5.10" departSpeed="0.00" departDelay="0.00" arrival="356.00" arrivalLane="2o_1" arrivalPos="786.40" arrivalSpeed="19.98" duration="176.00" routeLength="1594.90" waitingTime="57.00" waitingCount="1" stopTime="0.00" timeLoss="96.03" rerouteNo="0" devices="tripinfo_W_S_CV.3" vType="CV" speedFactor="1.16" vaporized=""/>
    <tripinfo id="W_S_HV.15" depart="171.00" departLane="1i_0" departPos="5.10" departSpeed="0.00" departDelay="0.00" arrival="357.00" arrivalLane="2o_0" arrivalPos="786.40" arrivalSpeed="18.07" duration="186.00" routeLength="1594.90" waitingTime="63.00" waitingCount="1" stopTime="0.00" timeLoss="97.68" rerouteNo="0" devices="tripinfo_W_S_HV.15" vType="HV" speedFactor="0.94" vaporized=""/>
    <tripinfo id="W_S_HV.16" depart="201.00" departLane="1i_0" departPos="5.10" departSpeed="0.00" departDelay="0.00" arrival="358.00" arrivalLane="2o_0" arrivalPos="786.40" arrivalSpeed="19.13" duration="157.00" routeLength="1594.90" waitingTime="39.00" waitingCount="1" stopTime="0.00" timeLoss="76.28" rerouteNo="0" devices="tripinfo_W_S_HV.16" vType="HV" speedFactor="1.02" vaporized=""/>
    <tripinfo id="W_S_HV.17" depart="223.00" departLane="1i_0" departPos="5.10" departSpeed="0.00" departDelay="0.00" arrival="360.00" arrivalLane="2o_0" arrivalPos="786.40" arrivalSpeed="19.54" duration="137.00" routeLength="1594.90" waitingTime="18.00" waitingCount="1" stopTime="0.00" timeLoss="55.15" rerouteNo="0" devices="tripinfo_W_S_HV.17" vType="HV" speedFactor="1.01" vaporized=""/>
    <tripinfo id="W_S_HV.18" depart="247.00" departLane="1i_0" departPos="5.10" departSpeed="0.00" departDelay="0.00" arrival="362.00" arrivalLane="2o_0" arrivalPos="786.40" arrivalSpeed="18.70" duration="115.00" routeLength="1594.90" waitingTime="0.00" waitingCount="0" stopTime="0.00" timeLoss="30.56" rerouteNo="0" devices="tripinfo_W_S_HV.18" vType="HV" speedFactor="0.98" vaporized=""/>
    <tripinfo id="W_S_HV.19" depart="255.00" departLane="1i_0" departPos="5.10" departSpeed="0.00" departDelay="0.00" arrival="367.00" arrivalLane="2o_0" arrivalPos="786.40" arrivalSpeed="16.97" duration="112.00" routeLength="1594.90" waitingTime="0.00" waitingCount="0" stopTime="0.00" timeLoss="19.12" rerouteNo="0" devices="tripinfo_W_S_HV.19" vType="HV" speedFactor="0.89" vaporized=""/>
    <tripinfo id="W_S_HV.20" depart="284.00" departLane="1i_0" departPos="5.10" departSpeed="0.00" departDelay="0.00" arrival="474.00" arrivalLane="2o_0" arrivalPos="786.40" arrivalSpeed="15.88" duration="190.00" routeLength="1594.90" waitingTime="60.00" waitingCount="1" stopTime="0.00" timeLoss="90.32" rerouteNo="0" devices="tripinfo_W_S_HV.20" vType="HV" speedFactor="0.83" vaporized=""/>
    <tripinfo id="W_S_HV.21" depart="298.00" departLane="1i_0" departPos="5.10" departSpeed="0.00" departDelay="0.00" arrival="474.00" arrivalLane="2o_1" arrivalPos="786.40" arrivalSpeed="16.74" duration="176.00" routeLength="1594.90" waitingTime="51.00" waitingCount="1" stopTime="0.00" timeLoss="81.54" rerouteNo="0" devices="tripinfo_W_S_HV.21" vType="HV" speedFactor="0.87" vaporized=""/>
    <tripinfo id="W_S_HV.22" depart="330.00" departLane="1i_0" departPos="5.10" departSpeed="0.00" departDelay="0.00" arrival="474.00" arrivalLane="2o_2" arrivalPos="786.40" arrivalSpeed="17.45" duration="144.00" routeLength="1594.90" waitingTime="21.00" waitingCount="1" stopTime="0.00" timeLoss="54.30" rerouteNo="0" devices="tripinfo_W_S_HV.22" vType="HV" speedFactor="0.92" vaporized=""/>
    <tripinfo id="W_S_HV.23" depart="339.00" departLane="1i_0" departPos="5.10" departSpeed="0.00" departDelay="0.00" arrival="476.00" arrivalLane="2o_0" arrivalPos="786.40" arrivalSpeed="18.13" duration="137.00" routeLength="1594.90" waitingTime="17.00" waitingCount="1" stopTime="0.00" timeLoss="49.67" rerouteNo="0" devices="tripinfo_W_S_HV.23" vType="HV" speedFactor="0.95" vaporized=""/>
    <tripinfo id="W_S_HV.24" depart="351.00" departLane="1i_0" departPos="5.10" departSpeed="0.00" departDelay="0.00" arrival="476.00" arrivalLane="2o_2" arrivalPos="786.40" arrivalSpeed="18.64" duration="125.00" routeLength="1594.90" waitingTime="7.00" waitingCount="1" stopTime="0.00" timeLoss="44.50" rerouteNo="0" devices="tripinfo_W_S_HV.24" vType="HV" speedFactor="1.13" vaporized=""/>
    <tripinfo id="W_S_HV.25" depart="381.00" departLane="1i_0" departPos="5.10" departSpeed="0.00" departDelay="0.00" arrival="486.00" arrivalLane="2o_0" arrivalPos="786.40" arrivalSpeed="18.02" duration="105.00" routeLength="1594.90" waitingTime="0.00" waitingCount="0" stopTime="0.00" timeLoss="15.96" rerouteNo="0" devices="tripinfo_W_S_HV.25" vType="HV" speedFactor="0.93" vaporized=""/>
    <tripinfo id="W_S_HV.26" depart="394.00" departLane="1i_0" departPos="5.10" departSpeed="0.00" departDelay="0.00" arrival="490.00" arrivalLane="2o_0" arrivalPos="786.40" arrivalSpeed="19.94" duration="96.00" routeLength="1594.90" waitingTime="0.00" waitingCount="0" stopTime="0.00" timeLoss="15.76" rerouteNo="0" devices="tripinfo_W_S_HV.26" vType="HV" speedFactor="1.18" vaporized=""/>
    <tripinfo id="W_S_HV.27" depart="399.00" departLane="1i_0" departPos="5.10" departSpeed="0.00" departDelay="0.00" arrival="588.00" arrivalLane="2o_0" arrivalPos="786.40" arrivalSpeed="19.73" duration="189.00" routeLength="1594.90" waitingTime="73.00" waitingCount="1" stopTime="0.00" timeLoss="108.71" rerouteNo="0" devices="tripinfo_W_S_HV.27" vType="HV" speedFactor="1.15" vaporized=""/>
    <tripinfo id="W_S_HV.28" depart="404.00" departLane="1i_0" departPos="5.10" departSpeed="0.00" departDelay="3.00" arrival="590.00" arrivalLane="2o_0" arrivalPos="786.40" arrivalSpeed="19.21" duration="186.00" routeLength="1594.90" waitingTime="69.00" waitingCount="1" stopTime="0.00" timeLoss="103.72" rerouteNo="0" devices="tripinfo_W_S_HV.28" vType="HV" speedFactor="1.01" vaporized=""/>
    <tripinfo id="W_S_HV.29" depart="410.00" departLane="1i_0" departPos="5.10" departSpeed="0.00" departDelay="0.00" arrival="591.00" arrivalLane="2o_1" arrivalPos="786.40" arrivalSpeed="19.73" duration="181.00" routeLength="1594.90" waitingTime="65.00" waitingCount="1" stopTime="0.00" timeLoss="100.78" rerouteNo="0" devices="tripinfo_W_S_HV.29" vType="HV" speedFactor="1.17" vaporized=""/>
    <tripinfo id="W_S_CV.4" depart="415.00" departLane="1i_0" departPos="5.10" departSpeed="0.00" departDelay="1.00" arrival="593.00" arrivalLane="2o_0" arrivalPos="786.40" arrivalSpeed="18.98" duration="178.00" routeLength="1594.90" waitingTime="60.00" waitingCount="1" stopTime="0.00" timeLoss="95.36" rerouteNo="0" devices="tripinfo_W_S_CV.4" vType="CV" speedFactor="0.99" vaporized=""/>
    <tripinfo id="W_S_HV.30" depart="420.00" departLane="1i_0" departPos="5.10" departSpeed="0.00" departDelay="2.00" arrival="594.00" arrivalLane="2o_1" arrivalPos="786.40" arrivalSpeed="19.70" duration="174.00" routeLength="1594.90" waitingTime="56.00" waitingCount="1" stopTime="0.00" timeLoss="93.31" rerouteNo="0" devices="tripinfo_W_S_HV.30" vType="HV" speedFactor="1.02" vaporized=""/>
    <tripinfo id="W_S_HV.31" depart="452.00" departLane="1i_0" departPos="5.10" departSpeed="0.00" departDelay="0.00" arrival="598.00" arrivalLane="2o_0" arrivalPos="786.40" arrivalSpeed="18.76" duration="146.00" routeLength="1594.90" waitingTime="26.00" waitingCount="1" stopTime="0.00" timeLoss="61.52" rerouteNo="0" devices="tripinfo_W_S_HV.31" vType="HV" speedFactor="0.97" vaporized=""/>
    <tripinfo id="W_S_HV.32" depart="465.00" departLane="1i_0" departPos="5.10" departSpeed="0.00" departDelay="0.00" arrival="599.00" arrivalLane="2o_1" arrivalPos="786.40" arrivalSpeed="19.94" duration="134.00" routeLength="1594.90" waitingTime="15.00" waitingCount="1" stopTime="0.00" timeLoss="53.57" rerouteNo="0" devices="tripinfo_W_S_HV.32" vType="HV" speedFactor="1.18" vaporized=""/>
    <tripinfo id="W_S_HV.33" depart="487.00" departLane="1i_0" departPos="5.10" departSpeed="0.00" departDelay="0.00" arrival="601.00" arrivalLane="2o_0" arrivalPos="786.40" arrivalSpeed="19.74" duration="114.00" routeLength="1594.90" waitingTime="0.00" waitingCount="0" stopTime="0.00" timeLoss="33.49" rerouteNo="0" devices="tripinfo_W_S_HV.33" vType="HV" speedFactor="1.10" vaporized=""/>
    <tripinfo id="W_S_HV.34" depart="492.00" departLane="1i_0" departPos="5.10" departSpeed="0.00" departDelay="3.00" arrival="606.00" arrivalLane="2o_0" arrivalPos="786.40" arrivalSpeed="17.50" duration="114.00" routeLength="1594.90" waitingTime="0.00" waitingCount="0" stopTime="0.00" timeLoss="22.58" rerouteNo="0" devices="tripinfo_W_S_HV.34" vType="HV" speedFactor="0.90" vaporized=""/>
    <tripinfo id="W_S_HV.35" depart="520.00" departLane="1i_0" departPos="5.10" departSpeed="0.00" departDelay="0.00" arrival="707.00" arrivalLane="2o_0" arrivalPos="786.40" arrivalSpeed="19.73" duration="187.00" routeLength="1594.90" waitingTime="72.00" waitingCount="1" stopTime="0.00" timeLoss="106.63" rerouteNo="0" devices="tripinfo_W_S_HV.35" vType="HV" speedFactor="1.03" vaporized=""/>
    <tripinfo id="W_S_HV.36" depart="539.00" departLane="1i_0" departPos="5.10" departSpeed="0.00" departDelay="3.00" arrival="710.00" arrivalLane="2o_1" arrivalPos="786.40" arrivalSpeed="19.75" duration="171.00" routeLength="1594.90" waitingTime="55.00" waitingCount="1" stopTime="0.00" timeLoss="91.00" rerouteNo="0" devices="tripinfo_W_S_HV.36" vType="HV" speedFactor="1.09" vaporized=""/>
    <tripinfo id="W_S_CV.5" depart="534.00" departLane="1i_0" departPos="5.10" departSpeed="0.00" departDelay="0.00" arrival="711.00" arrivalLane="2o_0" arrivalPos="786.40" arrivalSpeed="18.32" duration="177.00" routeLength="1594.90" waitingTime="56.00" waitingCount="1" stopTime="0.00" timeLoss="90.57" rerouteNo="0" devices="tripinfo_W_S_CV.5" vType="CV" speedFactor="0.96" vaporized=""/>
    <tripinfo id="W_S_HV.37" depart="544.00" departLane="1i_0" departPos="5.10" departSpeed="0.00" departDelay="7.00" arrival="713.00" arrivalLane="2o_0" arrivalPos="786.40" arrivalSpeed="19.89" duration="169.00" routeLength="1594.90" waitingTime="52.00" waitingCount="1" stopTime="0.00" timeLoss="88.57" rerouteNo="0" devices="tripinfo_W_S_HV.37" vType="HV" speedFactor="1.04" vaporized=""/>
    <tripinfo id="W_S_HV.38" depart="550.00" departLane="1i_0" departPos="5.10" departSpeed="0.00" departDelay="0.00" arrival="715.00" arrivalLane="2o_0" arrivalPos="786.40" arrivalSpeed="19.80" duration="165.00" routeLength="1594.90" waitingTime="47.00" waitingCount="1" stopTime="0.00" timeLoss="85.23" rerouteNo="0" devices="tripinfo_W_S_HV.38" vType="HV" speedFactor="1.04" vaporized=""/>
    <tripinfo id="W_S_CV.6" depart="593.00" departLane="1i_0" departPos="5.10" departSpeed="0.00" departDelay="0.00" arrival="717.00" arrivalLane="2o_0" arrivalPos="786.40" arrivalSpeed="19.69" duration="124.00" routeLength="1594.90" waitingTime="6.00" waitingCount="1" stopTime="0.00" timeLoss="44.00" rerouteNo="0" devices="tripinfo_W_S_CV.6" vType="CV" speedFactor="1.09" vaporized=""/>
    <tripinfo id="W_S_HV.39" depart="598.00" departLane="1i_0" departPos="5.10" departSpeed="0.00" departDelay="1.00" arrival="720.00" arrivalLane="2o_0" arrivalPos="786.40" arrivalSpeed="19.15" duration="122.00" routeLength="1594.90" waitingTime="1.00" waitingCount="1" stopTime="0.00" timeLoss="39.33" rerouteNo="0" devices="tripinfo_W_S_HV.39" vType="HV" speedFactor="1.00" vaporized=""/>
    <tripinfo id="W_S_HV.40" depart="604.00" departLane="1i_0" departPos="5.10" departSpeed="0.00" departDelay="2.00" arrival="725.00" arrivalLane="2o_0" arrivalPos="786.40" arrivalSpeed="17.28" duration="121.00" routeLength="1594.90" waitingTime="0.00" waitingCount="0" stopTime="0.00" timeLoss="29.08" rerouteNo="0" devices="tripinfo_W_S_HV.40" vType="HV" speedFactor="0.90" vaporized=""/>
    <tripinfo id="W_S_HV.41" depart="636.00" departLane="1i_0" departPos="5.10" departSpeed="0.00" departDelay="0.00" arrival="832.00" arrivalLane="2o_0" arrivalPos="786.40" arrivalSpeed="16.96" duration="196.00" routeLength="1594.90" waitingTime="71.00" waitingCount="1" stopTime="0.00" timeLoss="102.45" rerouteNo="0" devices="tripinfo_W_S_HV.41" vType="HV" speedFactor="0.88" vaporized=""/>
    <tripinfo id="W_S_HV.44" depart="666.00" departLane="1i_0" departPos="5.10" departSpeed="0.00" departDelay="4.00" arrival="833.00" arrivalLane="2o_1" arrivalPos="786.40" arrivalSpeed="19.98" duration="167.00" routeLength="1594.90" waitingTime="49.00" waitingCount="1" stopTime="0.00" timeLoss="86.82" rerouteNo="0" devices="tripinfo_W_S_HV.44" vType="HV" speedFactor="1.17" vaporized=""/>
    <tripinfo id="W_S_HV.45" depart="671.00" departLane="1i_0" departPos="5.10" departSpeed="0.00" departDelay="0.00" arrival="835.00" arrivalLane="2o_1" arrivalPos="786.40" arrivalSpeed="19.44" duration="164.00" routeLength="1594.90" waitingTime="46.00" waitingCount="1" stopTime="0.00" timeLoss="83.06" rerouteNo="0" devices="tripinfo_W_S_HV.45" vType="HV" speedFactor="1.02" vaporized=""/>
    <tripinfo id="W_S_HV.42" depart="651.00" departLane="1i_0" departPos="5.10" departSpeed="0.00" departDelay="0.00" arrival="836.00" arrivalLane="2o_0" arrivalPos="786.40" arrivalSpeed="16.42" duration="185.00" routeLength="1594.90" waitingTime="57.00" waitingCount="1" stopTime="0.00" timeLoss="87.58" rerouteNo="0" devices="tripinfo_W_S_HV.42" vType="HV" speedFactor="0.85" vaporized=""/>
    <tripinfo id="W_S_HV.46" depart="698.00" departLane="1i_0" departPos="5.10" departSpeed="0.00" departDelay="0.00" arrival="836.00" arrivalLane="2o_2" arrivalPos="786.40" arrivalSpeed="19.61" duration="138.00" routeLength="1594.90" waitingTime="19.00" waitingCount="1" stopTime="0.00" timeLoss="58.24" rerouteNo="0" devices="tripinfo_W_S_HV.46" vType="HV" speedFactor="1.10" vaporized=""/>
    <tripinfo id="W_S_HV.43" depart="661.00" departLane="1i_0" departPos="5.10" departSpeed="0.00" departDelay="0.00" arrival="837.00" arrivalLane="2o_0" arrivalPos="786.40" arrivalSpeed="16.29" duration="176.00" routeLength="1594.90" waitingTime="50.00" waitingCount="1" stopTime="0.00" timeLoss="79.73" rerouteNo="0" devices="tripinfo_W_S_HV.43" vType="HV" speedFactor="0.85" vaporized=""/>
    <tripinfo id="W_S_CV.7" depart="709.00" departLane="1i_0" departPos="5.10" departSpeed="0.00" departDelay="0.00" arrival="839.00" arrivalLane="2o_0" arrivalPos="786.40" arrivalSpeed="19.27" duration="130.00" routeLength="1594.90" waitingTime="11.00" waitingCount="1" stopTime="0.00" timeLoss="47.78" rerouteNo="0" devices="tripinfo_W_S_CV.7" vType="CV" speedFactor="1.00" vaporized=""/>
    <tripinfo id="W_S_HV.47" depart="736.00" departLane="1i_0" departPos="5.10" departSpeed="0.00" departDelay="0.00" arrival="841.00" arrivalLane="2o_0" arrivalPos="786.40" arrivalSpeed="18.99" duration="105.00" routeLength="1594.90" waitingTime="0.00" waitingCount="0" stopTime="0.00" timeLoss="21.92" rerouteNo="0" devices="tripinfo_W_S_HV.47" vType="HV" speedFactor="1.00" vaporized=""/>
    <tripinfo id="W_S_HV.48" depart="742.00" departLane="1i_0" departPos="5.10" departSpeed="0.00" departDelay="1.00" arrival="849.00" arrivalLane="2o_0" arrivalPos="786.40" arrivalSpeed="17.38" duration="107.00" routeLength="1594.90" waitingTime="0.00" waitingCount="0" stopTime="0.00" timeLoss="15.15" rerouteNo="0" devices="tripinfo_W_S_HV.48" vType="HV" speedFactor="0.90" vaporized=""/>
    <tripinfo id="W_S_HV.49" depart="761.00" departLane="1i_0" departPos="5.10" departSpeed="0.00" departDelay="0.00" arrival="947.00" arrivalLane="2o_0" arrivalPos="786.40" arrivalSpeed="19.83" duration="186.00" routeLength="1594.90" waitingTime="71.00" waitingCount="1" stopTime="0.00" timeLoss="106.19" rerouteNo="0" devices="tripinfo_W_S_HV.49" vType="HV" speedFactor="1.14" vaporized=""/>
    <tripinfo id="W_S_HV.50" depart="766.00" departLane="1i_0" departPos="5.10" departSpeed="0.00" departDelay="3.00" arrival="950.00" arrivalLane="2o_0" arrivalPos="786.40" arrivalSpeed="19.51" duration="184.00" routeLength="1594.90" waitingTime="68.00" waitingCount="1" stopTime="0.00" timeLoss="103.14" rerouteNo="0" devices="tripinfo_W_S_HV.50" vType="HV" speedFactor="1.02" vaporized=""/>
    <tripinfo id="W_S_HV.51" depart="771.00" departLane="1i_0" departPos="5.10" departSpeed="0.00" departDelay="7.00" arrival="953.00" arrivalLane="2o_0" arrivalPos="786.40" arrivalSpeed="18.77" duration="182.00" routeLength="1594.90" waitingTime="63.00" waitingCount="1" stopTime="0.00" timeLoss="97.31" rerouteNo="0" devices="tripinfo_W_S_HV.51" vType="HV" speedFactor="0.97" vaporized=""/>
    <tripinfo id="W_S_HV.52" depart="776.00" departLane="1i_0" departPos="5.10" departSpeed="0.00" departDelay="7.00" arrival="953.00" arrivalLane="2o_1" arrivalPos="786.40" arrivalSpeed="19.82" duration="177.00" routeLength="1594.90" waitingTime="58.00" waitingCount="1" stopTime="0.00" timeLoss="97.25" rerouteNo="0" devices="tripinfo_W_S_HV.52" vType="HV" speedFactor="1.08" vaporized=""/>
    <tripinfo id="W_S_HV.53" depart="781.00" departLane="1i_0" departPos="5.10" departSpeed="0.00" departDelay="10.00" arrival="955.00" arrivalLane="2o_0" arrivalPos="786.40" arrivalSpeed="19.63" duration="174.00" routeLength="1594.90" waitingTime="56.00" waitingCount="1" stopTime="0.00" timeLoss="93.77" rerouteNo="0" devices="tripinfo_W_S_HV.53" vType="HV" speedFactor="1.12" vaporized=""/>
    <tripinfo id="W_S_HV.54" depart="801.00" departLane="1i_0" departPos="5.10" departSpeed="0.00" departDelay="0.00" arrival="957.00" arrivalLane="2o_0" arrivalPos="786.40" arrivalSpeed="19.65" duration="156.00" routeLength="1594.90" waitingTime="38.00" waitingCount="1" stopTime="0.00" timeLoss="74.83" rerouteNo="0" devices="tripinfo_W_S_HV.54" vType="HV" speedFactor="1.02" vaporized=""/>
    <tripinfo id="W_S_HV.55" depart="836.00" departLane="1i_0" departPos="5.10" departSpeed="0.00" departDelay="0.00" arrival="960.00" arrivalLane="2o_0" arrivalPos="786.40" arrivalSpeed="19.13" duration="124.00" routeLength="1594.90" waitingTime="4.00" waitingCount="1" stopTime="0.00" timeLoss="40.06" rerouteNo="0" devices="tripinfo_W_S_HV.55" vType="HV" speedFactor="0.99" vaporized=""/>
    <tripinfo id="W_S_HV.56" depart="841.00" departLane="1i_0" departPos="5.10" departSpeed="0.00" departDelay="1.00" arrival="963.00" arrivalLane="2o_0" arrivalPos="786.40" arrivalSpeed="18.14" duration="122.00" routeLength="1594.90" waitingTime="0.00" waitingCount="0" stopTime="0.00" timeLoss="33.89" rerouteNo="0" devices="tripinfo_W_S_HV.56" vType="HV" speedFactor="0.94" vaporized=""/>
    <tripinfo id="W_S_HV.60" depart="866.00" departLane="1i_0" departPos="5.10" departSpeed="0.00" departDelay="2.00" arrival="965.00" arrivalLane="2o_2" arrivalPos="786.40" arrivalSpeed="19.75" duration="99.00" routeLength="1594.90" waitingTime="0.00" waitingCount="0" stopTime="0.00" timeLoss="18.81" rerouteNo="0" devices="tripinfo_W_S_HV.60" vType="HV" speedFactor="1.04" vaporized=""/>
    <tripinfo id="W_S_HV.57" depart="847.00" departLane="1i_0" departPos="5.10" departSpeed="0.00" departDelay="0.00" arrival="967.00" arrivalLane="2o_0" arrivalPos="786.40" arrivalSpeed="17.10" duration="120.00" routeLength="1594.90" waitingTime="0.00" waitingCount="0" stopTime="0.00" timeLoss="26.16" rerouteNo="0" devices="tripinfo_W_S_HV.57" vType="HV" speedFactor="0.88" vaporized=""/>
    <tripinfo id="W_S_HV.58" depart="856.00" departLane="1i_0" departPos="5.10" departSpeed="0.00" departDelay="0.00" arrival="967.00" arrivalLane="2o_1" arrivalPos="786.40" arrivalSpeed="17.46" duration="111.00" routeLength="1594.90" waitingTime="0.00" waitingCount="0" stopTime="0.00" timeLoss="20.20" rerouteNo="0" devices="tripinfo_W_S_HV.58" vType="HV" speedFactor="0.91" vaporized=""/>
    <tripinfo id="W_S_HV.61" depart="871.00" departLane="1i_0" departPos="5.10" departSpeed="0.00" departDelay="4.00" arrival="968.00" arrivalLane="2o_2" arrivalPos="786.40" arrivalSpeed="19.49" duration="97.00" routeLength="1594.90" waitingTime="0.00" waitingCount="0" stopTime="0.00" timeLoss="15.94" rerouteNo="0" devices="tripinfo_W_S_HV.61" vType="HV" speedFactor="1.02" vaporized=""/>
    <tripinfo id="W_S_HV.59" depart="861.00" departLane="1i_0" departPos="5.10" departSpeed="0.00" departDelay="4.00" arrival="969.00" arrivalLane="2o_0" arrivalPos="786.40" arrivalSpeed="17.45" duration="108.00" routeLength="1594.90" waitingTime="0.00" waitingCount="0" stopTime="0.00" timeLoss="17.43" rerouteNo="0" devices="tripinfo_W_S_HV.59" vType="HV" speedFactor="0.91" vaporized=""/>
    <tripinfo id="W_S_HV.62" depart="876.00" departLane="1i_0" departPos="5.10" departSpeed="0.00" departDelay="3.00" arrival="1069.00" arrivalLane="2o_0" arrivalPos="786.40" arrivalSpeed="19.78" duration="193.00" routeLength="1594.90" waitingTime="75.00" waitingCount="1" stopTime="0.00" timeLoss="111.82" rerouteNo="0" devices="tripinfo_W_S_HV.62" vType="HV" speedFactor="1.02" vaporized=""/>
    <tripinfo id="W_S_HV.63" depart="882.00" departLane="1i_0" departPos="5.10" departSpeed="0.00" departDelay="4.00" arrival="1073.00" arrivalLane="2o_0" arrivalPos="786.40" arrivalSpeed="18.57" duration="191.00" routeLength="1594.90" waitingTime="69.00" waitingCount="1" stopTime="0.00" timeLoss="105.96" rerouteNo="0" devices="tripinfo_W_S_HV.63" vType="HV" speedFactor="0.97" vaporized=""/>
    <tripinfo id="W_S_HV.65" depart="909.00" departLane="1i_0" departPos="5.10" departSpeed="0.00" departDelay="0.00" arrival="1075.00" arrivalLane="2o_1" arrivalPos="786.40" arrivalSpeed="19.66" duration="166.00" routeLength="1594.90" waitingTime="49.00" waitingCount="1" stopTime="0.00" timeLoss="85.37" rerouteNo="0" devices="tripinfo_W_S_HV.65" vType="HV" speedFactor="1.06" vaporized=""/>
    <tripinfo id="W_S_HV.64" depart="887.00" departLane="1i_0" departPos="5.10" departSpeed="0.00" departDelay="6.00" arrival="1076.00" arrivalLane="2o_0" arrivalPos="786.40" arrivalSpeed="18.14" duration="189.00" routeLength="1594.90" waitingTime="65.00" waitingCount="1" stopTime="0.00" timeLoss="100.87" rerouteNo="0" devices="tripinfo_W_S_HV.64" vType="HV" speedFactor="0.94" vaporized=""/>